
     Program PWSCF v.7.0 starts on 17Dec2023 at 14:31:27 

     This program is part of the open-source Quantum ESPRESSO suite
     for quantum simulation of materials; please cite
         "P. Giannozzi et al., J. Phys.:Condens. Matter 21 395502 (2009);
         "P. Giannozzi et al., J. Phys.:Condens. Matter 29 465901 (2017);
         "P. Giannozzi et al., J. Chem. Phys. 152 154105 (2020);
          URL http://www.quantum-espresso.org", 
     in publications or presentations arising from this work. More details at
     http://www.quantum-espresso.org/quote

     Parallel version (MPI), running on     4 processors

     MPI processes distributed on     1 nodes
     R & G space division:  proc/nbgrp/npool/nimage =       4
     6749 MiB available memory on the printing compute node when the environment starts
 
     Reading input from espresso.pwi
Warning: card &CELL ignored
Warning: card / ignored

     Current dimensions of program PWSCF are:
     Max number of different atomic species (ntypx) = 10
     Max number of k-points (npk) =  40000
     Max angular momentum in pseudopotentials (lmaxx) =  4

     **************************************************************************
     Initializing libbeef V0.1.2 with the BEEF-vdW functional.
     Citation: Wellendorff et al., PRB 85, 235149 (2012).
     **************************************************************************


     IMPORTANT: XC functional enforced from input :
     Exchange-correlation= BEEF-VDW
                           (   1   4  43  14   2   0   0)
     Any further DFT definition will be discarded
     Please, verify this is what you really want


     Subspace diagonalization in iterative solution of the eigenvalue problem:
     a serial algorithm will be used

 
     Parallelization info
     --------------------
     sticks:   dense  smooth     PW     G-vecs:    dense   smooth      PW
     Min         447     447    124                63565    63565    9440
     Max         448     448    125                63580    63580    9459
     Sum        1789    1789    499               254277   254277   37811
 
     Using Slab Decomposition
 


     bravais-lattice index     =            0
     lattice parameter (alat)  =      14.6980  a.u.
     unit-cell volume          =   11437.4669 (a.u.)^3
     number of atoms/cell      =           42
     number of atomic types    =            4
     number of electrons       =       698.00
     number of Kohn-Sham states=          419
     kinetic-energy cutoff     =      30.0000  Ry
     charge density cutoff     =     120.0000  Ry
     scf convergence threshold =      1.0E-06
     mixing beta               =       0.7000
     number of iterations used =            8  local-TF  mixing
     Exchange-correlation= BEEF-VDW
                           (   1   4  43  14   2   0   0)

     GPU acceleration is ACTIVE.


     celldm(1)=  14.698027  celldm(2)=   0.000000  celldm(3)=   0.000000
     celldm(4)=   0.000000  celldm(5)=   0.000000  celldm(6)=   0.000000

     crystal axes: (cart. coord. in units of alat)
               a(1) = (   1.000000   0.000000   0.000000 )  
               a(2) = (   0.500000   0.866025   0.000000 )  
               a(3) = (   0.000000   0.000000   4.159318 )  

     reciprocal axes: (cart. coord. in units 2 pi/alat)
               b(1) = (  1.000000 -0.577350  0.000000 )  
               b(2) = (  0.000000  1.154701  0.000000 )  
               b(3) = (  0.000000  0.000000  0.240424 )  


     PseudoPot. # 1 for Cu read from file:
     /home/xu.chao/pseudo/Cu_ONCV_PBE-1.2.upf
     MD5 check sum: 80213f8971cc881d9b4c24e0a73cd931
     Pseudo is Norm-conserving, Zval = 19.0
     Generated using ONCVPSP code by D. R. Hamann
     Using radial grid of  602 points,  6 beta functions with: 
                l(1) =   0
                l(2) =   0
                l(3) =   1
                l(4) =   1
                l(5) =   2
                l(6) =   2

     PseudoPot. # 2 for C  read from file:
     /home/xu.chao/pseudo/C_ONCV_PBE-1.2.upf
     MD5 check sum: 1a5f83a7b1f58d24996abe00ed223ac6
     Pseudo is Norm-conserving, Zval =  4.0
     Generated using ONCVPSP code by D. R. Hamann
     Using radial grid of  602 points,  4 beta functions with: 
                l(1) =   0
                l(2) =   0
                l(3) =   1
                l(4) =   1

     PseudoPot. # 3 for H  read from file:
     /home/xu.chao/pseudo/H_ONCV_PBE-1.2.upf
     MD5 check sum: bf21e08b90ac4ce7d0149ac4e8138190
     Pseudo is Norm-conserving, Zval =  1.0
     Generated using ONCVPSP code by D. R. Hamann
     Using radial grid of  602 points,  2 beta functions with: 
                l(1) =   0
                l(2) =   0

     PseudoPot. # 4 for O  read from file:
     /home/xu.chao/pseudo/O_ONCV_PBE-1.2.upf
     MD5 check sum: e36c48deb68f4e355fffe4602be2c42c
     Pseudo is Norm-conserving, Zval =  6.0
     Generated using ONCVPSP code by D. R. Hamann
     Using radial grid of  602 points,  4 beta functions with: 
                l(1) =   0
                l(2) =   0
                l(3) =   1
                l(4) =   1

     atomic species   valence    mass     pseudopotential
        Cu            19.00    63.54600     Cu( 1.00)
        C              4.00    12.01100     C ( 1.00)
        H              1.00     1.00800     H ( 1.00)
        O              6.00    15.99900     O ( 1.00)

     No symmetry found



   Cartesian axes

     site n.     atom                  positions (alat units)
         1           Cu  tau(   1) = (   0.0000000   0.0000000   1.6714107  )
         2           Cu  tau(   2) = (   0.3333333   0.0000000   1.6714107  )
         3           Cu  tau(   3) = (   0.6666667   0.0000000   1.6714107  )
         4           Cu  tau(   4) = (   0.1666667   0.2886751   1.6714107  )
         5           Cu  tau(   5) = (   0.5000000   0.2886751   1.6714107  )
         6           Cu  tau(   6) = (   0.8333333   0.2886751   1.6714107  )
         7           Cu  tau(   7) = (   0.3333333   0.5773503   1.6714107  )
         8           Cu  tau(   8) = (   0.6666667   0.5773503   1.6714107  )
         9           Cu  tau(   9) = (   1.0000000   0.5773503   1.6714107  )
        10           Cu  tau(  10) = (   0.1666667   0.0962250   1.9435763  )
        11           Cu  tau(  11) = (   0.5000000   0.0962250   1.9435763  )
        12           Cu  tau(  12) = (   0.8333333   0.0962250   1.9435763  )
        13           Cu  tau(  13) = (   0.3333333   0.3849002   1.9435763  )
        14           Cu  tau(  14) = (   0.6666667   0.3849002   1.9435763  )
        15           Cu  tau(  15) = (   1.0000000   0.3849002   1.9435763  )
        16           Cu  tau(  16) = (   0.5000000   0.6735753   1.9435763  )
        17           Cu  tau(  17) = (   0.8333333   0.6735753   1.9435763  )
        18           Cu  tau(  18) = (   1.1666667   0.6735753   1.9435763  )
        19           Cu  tau(  19) = (  -0.0085870   0.1804967   2.1792689  )
        20           Cu  tau(  20) = (   0.3636444   0.2073672   2.1769257  )
        21           Cu  tau(  21) = (   0.6737966   0.1847909   2.1771787  )
        22           Cu  tau(  22) = (   0.1633887   0.4190484   2.1890272  )
        23           Cu  tau(  23) = (   0.4424894   0.5033278   2.1988229  )
        24           Cu  tau(  24) = (   0.8967109   0.5401179   2.1820168  )
        25           Cu  tau(  25) = (   0.3466622   0.8008857   2.2163962  )
        26           Cu  tau(  26) = (   0.6442438   0.7848615   2.1772195  )
        27           Cu  tau(  27) = (   0.9952540   0.8198349   2.2549126  )
        28           Cu  tau(  28) = (  -0.0164527  -0.0291875   2.4895510  )
        29           Cu  tau(  29) = (   0.3361127   0.0006465   2.4816879  )
        30           Cu  tau(  30) = (   0.6973363  -0.0289263   2.4797501  )
        31           Cu  tau(  31) = (   0.1948528   0.3229840   2.4662211  )
        32           Cu  tau(  32) = (   0.5362600   0.3008180   2.4066609  )
        33           Cu  tau(  33) = (   0.8377824   0.2898078   2.4048715  )
        34           Cu  tau(  34) = (   0.3436401   0.5783891   2.4876610  )
        35           Cu  tau(  35) = (   0.7013600   0.5432016   2.4559153  )
        36           Cu  tau(  36) = (   1.0568698   0.5845638   2.4233251  )
        37           C   tau(  37) = (   0.5808000   0.4103283   2.9140648  )
        38           H   tau(  38) = (   0.4923713   0.5193591   2.9068860  )
        39           H   tau(  39) = (   0.5848146   0.3327141   3.0310138  )
        40           H   tau(  40) = (   0.6577432   0.3772669   2.8025911  )
        41           O   tau(  41) = (   0.1645257   0.0814620   2.6543026  )
        42           H   tau(  42) = (   0.1902589   0.0241820   2.7697988  )

     number of k points=    10  Marzari-Vanderbilt smearing, width (Ry)=  0.0100
                       cart. coord. in units 2pi/alat
        k(    1) = (   0.0000000   0.0000000   0.0000000), wk =   0.1250000
        k(    2) = (   0.0000000   0.2886751   0.0000000), wk =   0.2500000
        k(    3) = (   0.0000000  -0.5773503   0.0000000), wk =   0.1250000
        k(    4) = (   0.2500000  -0.1443376   0.0000000), wk =   0.2500000
        k(    5) = (   0.2500000   0.1443376   0.0000000), wk =   0.2500000
        k(    6) = (   0.2500000  -0.7216878   0.0000000), wk =   0.2500000
        k(    7) = (   0.2500000  -0.4330127   0.0000000), wk =   0.2500000
        k(    8) = (  -0.5000000   0.2886751   0.0000000), wk =   0.1250000
        k(    9) = (  -0.5000000   0.5773503   0.0000000), wk =   0.2500000
        k(   10) = (  -0.5000000  -0.2886751   0.0000000), wk =   0.1250000

     Dense  grid:   254277 G-vectors     FFT dimensions: (  54,  54, 216)

     Estimated max dynamical RAM per process >     925.26 MB

     Estimated total dynamical RAM >       3.61 GB

     Initial potential from superposition of free atoms

     starting charge     697.0246, renormalised to     698.0000

     negative rho (up, down):  1.216E+00 0.000E+00


     %%%%%%%%%%%%%%%%%%%%%%%%%%%%%%%%%%%%%%%%%%%%%%%%%%%%%%%%%%%%%%%%%%%%%%%%
     %                                                                      %
     % You are using vdW-DF, which was implemented by the Thonhauser group. %
     % Please cite the following two papers that made this development      %
     % possible and the two reviews that describe the various versions:     %
     %                                                                      %
     %   T. Thonhauser et al., PRL 115, 136402 (2015).                      %
     %   T. Thonhauser et al., PRB 76, 125112 (2007).                       %
     %   K. Berland et al., Rep. Prog. Phys. 78, 066501 (2015).             %
     %   D.C. Langreth et al., J. Phys.: Condens. Matter 21, 084203 (2009). %
     %                                                                      %
     %                                                                      %
     % If you are calculating the stress with vdW-DF, please also cite:     %
     %                                                                      %
     %   R. Sabatini et al., J. Phys.: Condens. Matter 24, 424209 (2012).   %
     %                                                                      %
     %%%%%%%%%%%%%%%%%%%%%%%%%%%%%%%%%%%%%%%%%%%%%%%%%%%%%%%%%%%%%%%%%%%%%%%%


     Starting wfcs are random

     total cpu time spent up to now is       14.7 secs

     Self-consistent Calculation

     iteration #  1     ecut=    30.00 Ry     beta= 0.70
     Davidson diagonalization with overlap
     ethr =  1.00E-02,  avg # of iterations = 16.2

     negative rho (up, down):  1.946E+00 0.000E+00

     total cpu time spent up to now is       46.3 secs

     total energy              =  -12820.10723040 Ry
     estimated scf accuracy    <     950.03487222 Ry

     iteration #  2     ecut=    30.00 Ry     beta= 0.70
     Davidson diagonalization with overlap
     ethr =  1.00E-02,  avg # of iterations =  5.1

     negative rho (up, down):  4.867E-01 0.000E+00

     total cpu time spent up to now is       58.1 secs

     total energy              =  -12883.05618823 Ry
     estimated scf accuracy    <      21.32897026 Ry

     iteration #  3     ecut=    30.00 Ry     beta= 0.70
     Davidson diagonalization with overlap
     ethr =  3.06E-03,  avg # of iterations =  1.8

     negative rho (up, down):  1.080E-01 0.000E+00

     total cpu time spent up to now is       66.7 secs

     total energy              =  -12881.95988115 Ry
     estimated scf accuracy    <       5.37157219 Ry

     iteration #  4     ecut=    30.00 Ry     beta= 0.70
     Davidson diagonalization with overlap
     ethr =  7.70E-04,  avg # of iterations =  9.3

     negative rho (up, down):  5.542E-02 0.000E+00

     total cpu time spent up to now is       78.0 secs

     total energy              =  -12882.40859160 Ry
     estimated scf accuracy    <       0.73962039 Ry

     iteration #  5     ecut=    30.00 Ry     beta= 0.70
     Davidson diagonalization with overlap
     ethr =  1.06E-04,  avg # of iterations =  6.6

     negative rho (up, down):  1.403E-02 0.000E+00

     total cpu time spent up to now is       87.6 secs

     total energy              =  -12882.37732599 Ry
     estimated scf accuracy    <       0.45202726 Ry

     iteration #  6     ecut=    30.00 Ry     beta= 0.70
     Davidson diagonalization with overlap
     ethr =  6.48E-05,  avg # of iterations =  6.4

     negative rho (up, down):  3.237E-03 0.000E+00

     total cpu time spent up to now is       97.8 secs

     total energy              =  -12882.36457634 Ry
     estimated scf accuracy    <       0.35501626 Ry

     iteration #  7     ecut=    30.00 Ry     beta= 0.70
     Davidson diagonalization with overlap
     ethr =  5.09E-05,  avg # of iterations =  2.6

     negative rho (up, down):  1.315E-04 0.000E+00

     total cpu time spent up to now is      107.4 secs

     total energy              =  -12882.35768811 Ry
     estimated scf accuracy    <       0.43474258 Ry

     iteration #  8     ecut=    30.00 Ry     beta= 0.70
     Davidson diagonalization with overlap
     ethr =  5.09E-05,  avg # of iterations =  8.1

     negative rho (up, down):  1.185E-08 0.000E+00

     total cpu time spent up to now is      117.6 secs

     total energy              =  -12882.35679528 Ry
     estimated scf accuracy    <       0.10189827 Ry

     iteration #  9     ecut=    30.00 Ry     beta= 0.70
     Davidson diagonalization with overlap
     ethr =  1.46E-05,  avg # of iterations =  8.9

     total cpu time spent up to now is      127.9 secs

     total energy              =  -12882.35429407 Ry
     estimated scf accuracy    <       0.03824055 Ry

     iteration # 10     ecut=    30.00 Ry     beta= 0.70
     Davidson diagonalization with overlap
     ethr =  5.48E-06,  avg # of iterations = 10.5

     negative rho (up, down):  4.489E-03 0.000E+00

     total cpu time spent up to now is      139.0 secs

     total energy              =  -12882.34508798 Ry
     estimated scf accuracy    <       0.04894278 Ry

     iteration # 11     ecut=    30.00 Ry     beta= 0.70
     Davidson diagonalization with overlap
     ethr =  5.48E-06,  avg # of iterations = 10.6
