
     Program PWSCF v.7.0 starts on 14Dec2023 at 16: 2: 8 

     This program is part of the open-source Quantum ESPRESSO suite
     for quantum simulation of materials; please cite
         "P. Giannozzi et al., J. Phys.:Condens. Matter 21 395502 (2009);
         "P. Giannozzi et al., J. Phys.:Condens. Matter 29 465901 (2017);
         "P. Giannozzi et al., J. Chem. Phys. 152 154105 (2020);
          URL http://www.quantum-espresso.org", 
     in publications or presentations arising from this work. More details at
     http://www.quantum-espresso.org/quote

     Parallel version (MPI), running on     4 processors

     MPI processes distributed on     1 nodes
     R & G space division:  proc/nbgrp/npool/nimage =       4
     18688 MiB available memory on the printing compute node when the environment starts
 
     Reading input from espresso.pwi
Warning: card &CELL ignored
Warning: card / ignored

     Current dimensions of program PWSCF are:
     Max number of different atomic species (ntypx) = 10
     Max number of k-points (npk) =  40000
     Max angular momentum in pseudopotentials (lmaxx) =  4

     **************************************************************************
     Initializing libbeef V0.1.2 with the BEEF-vdW functional.
     Citation: Wellendorff et al., PRB 85, 235149 (2012).
     **************************************************************************


     IMPORTANT: XC functional enforced from input :
     Exchange-correlation= BEEF-VDW
                           (   1   4  43  14   2   0   0)
     Any further DFT definition will be discarded
     Please, verify this is what you really want


     Subspace diagonalization in iterative solution of the eigenvalue problem:
     a serial algorithm will be used

 
     Parallelization info
     --------------------
     sticks:   dense  smooth     PW     G-vecs:    dense   smooth      PW
     Min         747     747    205               136551   136551   19709
     Max         748     748    207               136564   136564   19715
     Sum        2989    2989    823               546227   546227   78847
 
     Using Slab Decomposition
 


     bravais-lattice index     =            0
     lattice parameter (alat)  =      14.6980  a.u.
     unit-cell volume          =   11437.4669 (a.u.)^3
     number of atoms/cell      =           42
     number of atomic types    =            5
     number of electrons       =       698.00
     number of Kohn-Sham states=          419
     kinetic-energy cutoff     =      50.0000  Ry
     charge density cutoff     =     200.0000  Ry
     scf convergence threshold =      1.0E-06
     mixing beta               =       0.7000
     number of iterations used =            8  local-TF  mixing
     Exchange-correlation= BEEF-VDW
                           (   1   4  43  14   2   0   0)

     GPU acceleration is ACTIVE.


     celldm(1)=  14.698027  celldm(2)=   0.000000  celldm(3)=   0.000000
     celldm(4)=   0.000000  celldm(5)=   0.000000  celldm(6)=   0.000000

     crystal axes: (cart. coord. in units of alat)
               a(1) = (   1.000000   0.000000   0.000000 )  
               a(2) = (   0.500000   0.866025   0.000000 )  
               a(3) = (   0.000000   0.000000   4.159318 )  

     reciprocal axes: (cart. coord. in units 2 pi/alat)
               b(1) = (  1.000000 -0.577350  0.000000 )  
               b(2) = (  0.000000  1.154701  0.000000 )  
               b(3) = (  0.000000  0.000000  0.240424 )  


     PseudoPot. # 1 for Cu read from file:
     /home/xu.chao/pseudo/Cu_ONCV_PBE-1.2.upf
     MD5 check sum: 80213f8971cc881d9b4c24e0a73cd931
     Pseudo is Norm-conserving, Zval = 19.0
     Generated using ONCVPSP code by D. R. Hamann
     Using radial grid of  602 points,  6 beta functions with: 
                l(1) =   0
                l(2) =   0
                l(3) =   1
                l(4) =   1
                l(5) =   2
                l(6) =   2

     PseudoPot. # 2 for C  read from file:
     /home/xu.chao/pseudo/C_ONCV_PBE-1.2.upf
     MD5 check sum: 1a5f83a7b1f58d24996abe00ed223ac6
     Pseudo is Norm-conserving, Zval =  4.0
     Generated using ONCVPSP code by D. R. Hamann
     Using radial grid of  602 points,  4 beta functions with: 
                l(1) =   0
                l(2) =   0
                l(3) =   1
                l(4) =   1

     PseudoPot. # 3 for H  read from file:
     /home/xu.chao/pseudo/H_ONCV_PBE-1.2.upf
     MD5 check sum: bf21e08b90ac4ce7d0149ac4e8138190
     Pseudo is Norm-conserving, Zval =  1.0
     Generated using ONCVPSP code by D. R. Hamann
     Using radial grid of  602 points,  2 beta functions with: 
                l(1) =   0
                l(2) =   0

     PseudoPot. # 4 for O  read from file:
     /home/xu.chao/pseudo/O_ONCV_PBE-1.2.upf
     MD5 check sum: e36c48deb68f4e355fffe4602be2c42c
     Pseudo is Norm-conserving, Zval =  6.0
     Generated using ONCVPSP code by D. R. Hamann
     Using radial grid of  602 points,  4 beta functions with: 
                l(1) =   0
                l(2) =   0
                l(3) =   1
                l(4) =   1

     PseudoPot. # 5 for H  read from file:
     /home/xu.chao/pseudo/H_ONCV_PBE-1.2.upf
     MD5 check sum: bf21e08b90ac4ce7d0149ac4e8138190
     Pseudo is Norm-conserving, Zval =  1.0
     Generated using ONCVPSP code by D. R. Hamann
     Using radial grid of  602 points,  2 beta functions with: 
                l(1) =   0
                l(2) =   0

     atomic species   valence    mass     pseudopotential
        Cu            19.00    63.54600     Cu( 1.00)
        C              4.00    12.01100     C ( 1.00)
        H              1.00     1.00800     H ( 1.00)
        O              6.00    15.99900     O ( 1.00)
        H1             1.00     1.00800     H ( 1.00)

     Starting magnetic structure 
     atomic species   magnetization
        Cu           0.000
        C            1.000
        H            0.000
        O            0.500
        H1           0.500

     No symmetry found



   Cartesian axes

     site n.     atom                  positions (alat units)
         1           Cu  tau(   1) = (   0.0000000   0.0000000   1.6714107  )
         2           Cu  tau(   2) = (   0.3333333   0.0000000   1.6714107  )
         3           Cu  tau(   3) = (   0.6666667   0.0000000   1.6714107  )
         4           Cu  tau(   4) = (   0.1666667   0.2886751   1.6714107  )
         5           Cu  tau(   5) = (   0.5000000   0.2886751   1.6714107  )
         6           Cu  tau(   6) = (   0.8333333   0.2886751   1.6714107  )
         7           Cu  tau(   7) = (   0.3333333   0.5773503   1.6714107  )
         8           Cu  tau(   8) = (   0.6666667   0.5773503   1.6714107  )
         9           Cu  tau(   9) = (   1.0000000   0.5773503   1.6714107  )
        10           Cu  tau(  10) = (   0.1666667   0.0962250   1.9435763  )
        11           Cu  tau(  11) = (   0.5000000   0.0962250   1.9435763  )
        12           Cu  tau(  12) = (   0.8333333   0.0962250   1.9435763  )
        13           Cu  tau(  13) = (   0.3333333   0.3849002   1.9435763  )
        14           Cu  tau(  14) = (   0.6666667   0.3849002   1.9435763  )
        15           Cu  tau(  15) = (   1.0000000   0.3849002   1.9435763  )
        16           Cu  tau(  16) = (   0.5000000   0.6735753   1.9435763  )
        17           Cu  tau(  17) = (   0.8333333   0.6735753   1.9435763  )
        18           Cu  tau(  18) = (   1.1666667   0.6735753   1.9435763  )
        19           Cu  tau(  19) = (   0.0011210   0.1909116   2.2307209  )
        20           Cu  tau(  20) = (   0.3346254   0.1911670   2.2306986  )
        21           Cu  tau(  21) = (   0.6674084   0.1791517   2.2315437  )
        22           Cu  tau(  22) = (   0.1661522   0.4802000   2.2294162  )
        23           Cu  tau(  23) = (   0.4927369   0.4818882   2.2301222  )
        24           Cu  tau(  24) = (   0.8305203   0.4782735   2.2190672  )
        25           Cu  tau(  25) = (   0.3337110   0.7691292   2.2281664  )
        26           Cu  tau(  26) = (   0.6656653   0.7690740   2.2307490  )
        27           Cu  tau(  27) = (   1.0000066   0.7681956   2.2313549  )
        28           Cu  tau(  28) = (  -0.0107632  -0.0028700   2.5093790  )
        29           Cu  tau(  29) = (   0.3456073  -0.0116602   2.5111611  )
        30           Cu  tau(  30) = (   0.6762214  -0.0149424   2.5227774  )
        31           Cu  tau(  31) = (   0.1682306   0.3067755   2.5117707  )
        32           Cu  tau(  32) = (   0.5141744   0.2906762   2.5079371  )
        33           Cu  tau(  33) = (   0.8240855   0.2979877   2.5068238  )
        34           Cu  tau(  34) = (   0.3234700   0.5810005   2.5191106  )
        35           Cu  tau(  35) = (   0.6649993   0.5638595   2.5070630  )
        36           Cu  tau(  36) = (   0.9804220   0.5672628   2.5058711  )
        37           C   tau(  37) = (   1.2269502   0.7133106   2.7556782  )
        38           H   tau(  38) = (   1.2313638   0.8411780   2.8138264  )
        39           H   tau(  39) = (   1.3390295   0.6452249   2.8068097  )
        40           H   tau(  40) = (   1.1125446   0.6482664   2.8037172  )
        41           O   tau(  41) = (   0.1704855   0.0995448   2.6753280  )
        42           H1  tau(  42) = (   0.1713940   0.0994656   2.7990180  )

     number of k points=    13  Marzari-Vanderbilt smearing, width (Ry)=  0.0100
                       cart. coord. in units 2pi/alat
        k(    1) = (   0.0000000   0.0000000   0.0000000), wk =   0.0400000
        k(    2) = (   0.0000000   0.2309401   0.0000000), wk =   0.0800000
        k(    3) = (   0.0000000   0.4618802   0.0000000), wk =   0.0800000
        k(    4) = (   0.2000000  -0.1154701   0.0000000), wk =   0.0800000
        k(    5) = (   0.2000000   0.1154701   0.0000000), wk =   0.0800000
        k(    6) = (   0.2000000   0.3464102   0.0000000), wk =   0.0800000
        k(    7) = (   0.2000000  -0.5773503   0.0000000), wk =   0.0800000
        k(    8) = (   0.2000000  -0.3464102   0.0000000), wk =   0.0800000
        k(    9) = (   0.4000000  -0.2309401   0.0000000), wk =   0.0800000
        k(   10) = (   0.4000000   0.0000000   0.0000000), wk =   0.0800000
        k(   11) = (   0.4000000   0.2309401   0.0000000), wk =   0.0800000
        k(   12) = (   0.4000000  -0.6928203   0.0000000), wk =   0.0800000
        k(   13) = (   0.4000000  -0.4618802   0.0000000), wk =   0.0800000

     Dense  grid:   546227 G-vectors     FFT dimensions: (  72,  72, 288)

     Estimated max dynamical RAM per process >       3.67 GB

     Estimated total dynamical RAM >      14.67 GB
     Generating pointlists ...
     new r_m :   0.1089 (alat units)  1.6007 (a.u.) for type    1
     new r_m :   0.0578 (alat units)  0.8494 (a.u.) for type    2
     new r_m :   0.0578 (alat units)  0.8494 (a.u.) for type    3
     new r_m :   0.0510 (alat units)  0.7499 (a.u.) for type    4
     new r_m :   0.0510 (alat units)  0.7499 (a.u.) for type    5

     Initial potential from superposition of free atoms

     starting charge     697.0246, renormalised to     698.0000

     negative rho (up, down):  3.629E-02 3.647E-02


     %%%%%%%%%%%%%%%%%%%%%%%%%%%%%%%%%%%%%%%%%%%%%%%%%%%%%%%%%%%%%%%%%%%%%%%%
     %                                                                      %
     % You are using vdW-DF, which was implemented by the Thonhauser group. %
     % Please cite the following two papers that made this development      %
     % possible and the two reviews that describe the various versions:     %
     %                                                                      %
     %   T. Thonhauser et al., PRL 115, 136402 (2015).                      %
     %   T. Thonhauser et al., PRB 76, 125112 (2007).                       %
     %   K. Berland et al., Rep. Prog. Phys. 78, 066501 (2015).             %
     %   D.C. Langreth et al., J. Phys.: Condens. Matter 21, 084203 (2009). %
     %                                                                      %
     %                                                                      %
     % If you are calculating the stress with vdW-DF, please also cite:     %
     %                                                                      %
     %   R. Sabatini et al., J. Phys.: Condens. Matter 24, 424209 (2012).   %
     %                                                                      %
     %%%%%%%%%%%%%%%%%%%%%%%%%%%%%%%%%%%%%%%%%%%%%%%%%%%%%%%%%%%%%%%%%%%%%%%%


     Starting wfcs are random

     total cpu time spent up to now is       33.2 secs

     Self-consistent Calculation

     iteration #  1     ecut=    50.00 Ry     beta= 0.70
     Davidson diagonalization with overlap
     ethr =  1.00E-02,  avg # of iterations = 16.2

     Threshold (ethr) on eigenvalues was too large:
     Diagonalizing with lowered threshold

     Davidson diagonalization with overlap
     ethr =  4.58E-04,  avg # of iterations =  1.7

     negative rho (up, down):  4.800E-03 4.788E-03

     total cpu time spent up to now is      242.3 secs

     total energy              =  -13219.32090376 Ry
     estimated scf accuracy    <       3.05900881 Ry

     total magnetization       =     0.74 Bohr mag/cell
     absolute magnetization    =     2.47 Bohr mag/cell

     iteration #  2     ecut=    50.00 Ry     beta= 0.70
     Davidson diagonalization with overlap
     ethr =  4.38E-04,  avg # of iterations =  2.2

     total cpu time spent up to now is      294.2 secs

     total energy              =  -13219.38876022 Ry
     estimated scf accuracy    <       0.75825586 Ry

     total magnetization       =     0.52 Bohr mag/cell
     absolute magnetization    =     1.58 Bohr mag/cell

     iteration #  3     ecut=    50.00 Ry     beta= 0.70
     Davidson diagonalization with overlap
     ethr =  1.09E-04,  avg # of iterations =  8.2

     total cpu time spent up to now is      343.9 secs

     total energy              =  -13219.45138662 Ry
     estimated scf accuracy    <       0.13807294 Ry

     total magnetization       =     0.24 Bohr mag/cell
     absolute magnetization    =     0.75 Bohr mag/cell

     iteration #  4     ecut=    50.00 Ry     beta= 0.70
     Davidson diagonalization with overlap
     ethr =  1.98E-05,  avg # of iterations =  7.9

     total cpu time spent up to now is      389.2 secs

     total energy              =  -13219.44103650 Ry
     estimated scf accuracy    <       0.07258544 Ry

     total magnetization       =     0.12 Bohr mag/cell
     absolute magnetization    =     0.38 Bohr mag/cell

     iteration #  5     ecut=    50.00 Ry     beta= 0.70
     Davidson diagonalization with overlap
     ethr =  1.04E-05,  avg # of iterations =  8.2

     total cpu time spent up to now is      437.9 secs

     total energy              =  -13219.44048065 Ry
     estimated scf accuracy    <       0.03034772 Ry

     total magnetization       =    -0.00 Bohr mag/cell
     absolute magnetization    =     0.06 Bohr mag/cell

     iteration #  6     ecut=    50.00 Ry     beta= 0.70
     Davidson diagonalization with overlap
     ethr =  4.35E-06,  avg # of iterations =  8.6

     negative rho (up, down):  2.981E-04 2.938E-04

     total cpu time spent up to now is      494.6 secs

     total energy              =  -13219.42046567 Ry
     estimated scf accuracy    <       0.01719729 Ry

     total magnetization       =    -0.04 Bohr mag/cell
     absolute magnetization    =     0.13 Bohr mag/cell

     iteration #  7     ecut=    50.00 Ry     beta= 0.70
     Davidson diagonalization with overlap
     ethr =  2.46E-06,  avg # of iterations =  9.2

     negative rho (up, down):  1.090E-02 1.087E-02

     total cpu time spent up to now is      551.6 secs

     total energy              =  -13219.41609214 Ry
     estimated scf accuracy    <       0.00975228 Ry

     total magnetization       =    -0.05 Bohr mag/cell
     absolute magnetization    =     0.14 Bohr mag/cell

     iteration #  8     ecut=    50.00 Ry     beta= 0.70
     Davidson diagonalization with overlap
     ethr =  1.40E-06,  avg # of iterations = 10.9

     negative rho (up, down):  4.951E-03 4.953E-03

     total cpu time spent up to now is      613.7 secs

     total energy              =  -13219.42613462 Ry
     estimated scf accuracy    <       0.00581248 Ry

     total magnetization       =    -0.02 Bohr mag/cell
     absolute magnetization    =     0.06 Bohr mag/cell

     iteration #  9     ecut=    50.00 Ry     beta= 0.70
     Davidson diagonalization with overlap
     ethr =  8.33E-07,  avg # of iterations = 15.7

     negative rho (up, down):  1.284E-02 1.285E-02

     total cpu time spent up to now is      681.2 secs

     total energy              =  -13219.43127004 Ry
     estimated scf accuracy    <       0.00368879 Ry

     total magnetization       =     0.01 Bohr mag/cell
     absolute magnetization    =     0.02 Bohr mag/cell

     iteration # 10     ecut=    50.00 Ry     beta= 0.70
     Davidson diagonalization with overlap
     ethr =  5.28E-07,  avg # of iterations = 10.8

     negative rho (up, down):  7.308E-03 7.307E-03

     total cpu time spent up to now is      739.8 secs

     total energy              =  -13219.43347189 Ry
     estimated scf accuracy    <       0.00144776 Ry

     total magnetization       =     0.02 Bohr mag/cell
     absolute magnetization    =     0.04 Bohr mag/cell

     iteration # 11     ecut=    50.00 Ry     beta= 0.70
     Davidson diagonalization with overlap
     ethr =  2.07E-07,  avg # of iterations =  9.5

     negative rho (up, down):  1.824E-03 1.824E-03

     total cpu time spent up to now is      810.3 secs

     total energy              =  -13219.43400442 Ry
     estimated scf accuracy    <       0.00022214 Ry

     total magnetization       =    -0.00 Bohr mag/cell
     absolute magnetization    =     0.02 Bohr mag/cell

     iteration # 12     ecut=    50.00 Ry     beta= 0.70
     Davidson diagonalization with overlap
     ethr =  3.18E-08,  avg # of iterations =  9.7

     negative rho (up, down):  4.253E-04 4.253E-04

     total cpu time spent up to now is      882.0 secs

     total energy              =  -13219.43398124 Ry
     estimated scf accuracy    <       0.00007380 Ry

     total magnetization       =    -0.00 Bohr mag/cell
     absolute magnetization    =     0.01 Bohr mag/cell

     iteration # 13     ecut=    50.00 Ry     beta= 0.70
     Davidson diagonalization with overlap
     ethr =  1.06E-08,  avg # of iterations =  7.3

     negative rho (up, down):  1.261E-04 1.261E-04

     total cpu time spent up to now is      953.5 secs

     total energy              =  -13219.43398626 Ry
     estimated scf accuracy    <       0.00003339 Ry

     total magnetization       =    -0.00 Bohr mag/cell
     absolute magnetization    =     0.01 Bohr mag/cell

     iteration # 14     ecut=    50.00 Ry     beta= 0.70
     Davidson diagonalization with overlap
     ethr =  4.78E-09,  avg # of iterations = 11.4

     total cpu time spent up to now is     1028.6 secs

     total energy              =  -13219.43400554 Ry
     estimated scf accuracy    <       0.00001715 Ry

     total magnetization       =    -0.00 Bohr mag/cell
     absolute magnetization    =     0.01 Bohr mag/cell

     iteration # 15     ecut=    50.00 Ry     beta= 0.70
     Davidson diagonalization with overlap
     c_bands:  1 eigenvalues not converged
     c_bands:  1 eigenvalues not converged
     ethr =  2.46E-09,  avg # of iterations = 14.7
