
     Program PWSCF v.7.0 starts on 21Dec2023 at 13:25:19 

     This program is part of the open-source Quantum ESPRESSO suite
     for quantum simulation of materials; please cite
         "P. Giannozzi et al., J. Phys.:Condens. Matter 21 395502 (2009);
         "P. Giannozzi et al., J. Phys.:Condens. Matter 29 465901 (2017);
         "P. Giannozzi et al., J. Chem. Phys. 152 154105 (2020);
          URL http://www.quantum-espresso.org", 
     in publications or presentations arising from this work. More details at
     http://www.quantum-espresso.org/quote

     Parallel version (MPI), running on     4 processors

     MPI processes distributed on     1 nodes
     R & G space division:  proc/nbgrp/npool/nimage =       4
     10410 MiB available memory on the printing compute node when the environment starts
 
     Reading input from espresso.pwi
Warning: card &CELL ignored
Warning: card / ignored

     Current dimensions of program PWSCF are:
     Max number of different atomic species (ntypx) = 10
     Max number of k-points (npk) =  40000
     Max angular momentum in pseudopotentials (lmaxx) =  4

     **************************************************************************
     Initializing libbeef V0.1.2 with the BEEF-vdW functional.
     Citation: Wellendorff et al., PRB 85, 235149 (2012).
     **************************************************************************


     IMPORTANT: XC functional enforced from input :
     Exchange-correlation= BEEF-VDW
                           (   1   4  43  14   2   0   0)
     Any further DFT definition will be discarded
     Please, verify this is what you really want


     Subspace diagonalization in iterative solution of the eigenvalue problem:
     a serial algorithm will be used

 
     Parallelization info
     --------------------
     sticks:   dense  smooth     PW     G-vecs:    dense   smooth      PW
     Min         447     447    124                63565    63565    9440
     Max         448     448    125                63580    63580    9459
     Sum        1789    1789    499               254277   254277   37811
 
     Using Slab Decomposition
 


     bravais-lattice index     =            0
     lattice parameter (alat)  =      14.6980  a.u.
     unit-cell volume          =   11437.4669 (a.u.)^3
     number of atoms/cell      =           42
     number of atomic types    =            4
     number of electrons       =       698.00
     number of Kohn-Sham states=          419
     kinetic-energy cutoff     =      30.0000  Ry
     charge density cutoff     =     120.0000  Ry
     scf convergence threshold =      1.0E-06
     mixing beta               =       0.7000
     number of iterations used =            8  local-TF  mixing
     Exchange-correlation= BEEF-VDW
                           (   1   4  43  14   2   0   0)

     GPU acceleration is ACTIVE.


     celldm(1)=  14.698027  celldm(2)=   0.000000  celldm(3)=   0.000000
     celldm(4)=   0.000000  celldm(5)=   0.000000  celldm(6)=   0.000000

     crystal axes: (cart. coord. in units of alat)
               a(1) = (   1.000000   0.000000   0.000000 )  
               a(2) = (   0.500000   0.866025   0.000000 )  
               a(3) = (   0.000000   0.000000   4.159318 )  

     reciprocal axes: (cart. coord. in units 2 pi/alat)
               b(1) = (  1.000000 -0.577350  0.000000 )  
               b(2) = (  0.000000  1.154701  0.000000 )  
               b(3) = (  0.000000  0.000000  0.240424 )  


     PseudoPot. # 1 for Cu read from file:
     /home/xu.chao/pseudo/Cu_ONCV_PBE-1.2.upf
     MD5 check sum: 80213f8971cc881d9b4c24e0a73cd931
     Pseudo is Norm-conserving, Zval = 19.0
     Generated using ONCVPSP code by D. R. Hamann
     Using radial grid of  602 points,  6 beta functions with: 
                l(1) =   0
                l(2) =   0
                l(3) =   1
                l(4) =   1
                l(5) =   2
                l(6) =   2

     PseudoPot. # 2 for C  read from file:
     /home/xu.chao/pseudo/C_ONCV_PBE-1.2.upf
     MD5 check sum: 1a5f83a7b1f58d24996abe00ed223ac6
     Pseudo is Norm-conserving, Zval =  4.0
     Generated using ONCVPSP code by D. R. Hamann
     Using radial grid of  602 points,  4 beta functions with: 
                l(1) =   0
                l(2) =   0
                l(3) =   1
                l(4) =   1

     PseudoPot. # 3 for H  read from file:
     /home/xu.chao/pseudo/H_ONCV_PBE-1.2.upf
     MD5 check sum: bf21e08b90ac4ce7d0149ac4e8138190
     Pseudo is Norm-conserving, Zval =  1.0
     Generated using ONCVPSP code by D. R. Hamann
     Using radial grid of  602 points,  2 beta functions with: 
                l(1) =   0
                l(2) =   0

     PseudoPot. # 4 for O  read from file:
     /home/xu.chao/pseudo/O_ONCV_PBE-1.2.upf
     MD5 check sum: e36c48deb68f4e355fffe4602be2c42c
     Pseudo is Norm-conserving, Zval =  6.0
     Generated using ONCVPSP code by D. R. Hamann
     Using radial grid of  602 points,  4 beta functions with: 
                l(1) =   0
                l(2) =   0
                l(3) =   1
                l(4) =   1

     atomic species   valence    mass     pseudopotential
        Cu            19.00    63.54600     Cu( 1.00)
        C              4.00    12.01100     C ( 1.00)
        H              1.00     1.00800     H ( 1.00)
        O              6.00    15.99900     O ( 1.00)

     No symmetry found



   Cartesian axes

     site n.     atom                  positions (alat units)
         1           Cu  tau(   1) = (   0.0443201  -0.0078691   1.6826201  )
         2           Cu  tau(   2) = (   0.3333333   0.0000000   1.6714107  )
         3           Cu  tau(   3) = (   0.6666667   0.0000000   1.6714107  )
         4           Cu  tau(   4) = (   0.1666667   0.2886751   1.6714107  )
         5           Cu  tau(   5) = (   0.5000000   0.2886751   1.6714107  )
         6           Cu  tau(   6) = (   0.8333333   0.2886751   1.6714107  )
         7           Cu  tau(   7) = (   0.3333333   0.5773503   1.6714107  )
         8           Cu  tau(   8) = (   0.6666667   0.5773503   1.6714107  )
         9           Cu  tau(   9) = (   1.0000000   0.5773503   1.6714107  )
        10           Cu  tau(  10) = (   0.1666667   0.0962250   1.9435763  )
        11           Cu  tau(  11) = (   0.5000000   0.0962250   1.9435763  )
        12           Cu  tau(  12) = (   0.8333333   0.0962250   1.9435763  )
        13           Cu  tau(  13) = (   0.3333333   0.3849002   1.9435763  )
        14           Cu  tau(  14) = (   0.6666667   0.3849002   1.9435763  )
        15           Cu  tau(  15) = (   1.0000000   0.3849002   1.9435763  )
        16           Cu  tau(  16) = (   0.5000000   0.6735753   1.9435763  )
        17           Cu  tau(  17) = (   0.8333333   0.6735753   1.9435763  )
        18           Cu  tau(  18) = (   1.1666667   0.6735753   1.9435763  )
        19           Cu  tau(  19) = (  -0.0368982   0.1706528   2.2122650  )
        20           Cu  tau(  20) = (   0.3750425   0.2132025   2.1878359  )
        21           Cu  tau(  21) = (   0.6621390   0.1266779   2.1932738  )
        22           Cu  tau(  22) = (   0.1352629   0.4865585   2.2607185  )
        23           Cu  tau(  23) = (   0.4328591   0.4961322   2.2194328  )
        24           Cu  tau(  24) = (   0.8524441   0.4982345   2.1780008  )
        25           Cu  tau(  25) = (   0.3495236   0.7707634   2.1731268  )
        26           Cu  tau(  26) = (   0.6459866   0.7067905   2.1909170  )
        27           Cu  tau(  27) = (   0.9978461   0.7499780   2.2838822  )
        28           Cu  tau(  28) = (  -0.0462606  -0.0335420   2.5271695  )
        29           Cu  tau(  29) = (   0.3450937  -0.0206362   2.5275110  )
        30           Cu  tau(  30) = (   0.6509556  -0.0323705   2.5286507  )
        31           Cu  tau(  31) = (   0.1652493   0.3110538   2.4924613  )
        32           Cu  tau(  32) = (   0.5196648   0.2922216   2.5267179  )
        33           Cu  tau(  33) = (   0.8176787   0.2901563   2.5292160  )
        34           Cu  tau(  34) = (   0.3031081   0.5776680   2.4876343  )
        35           Cu  tau(  35) = (   0.6679870   0.5425274   2.5268112  )
        36           Cu  tau(  36) = (   1.0036798   0.5754411   2.5260557  )
        37           C   tau(  37) = (   0.3810489   0.2991044   2.9143836  )
        38           H   tau(  38) = (   0.3308222   0.4316803   2.9081303  )
        39           H   tau(  39) = (   0.4122185   0.2679979   3.0494617  )
        40           H   tau(  40) = (   0.5035553   0.2961401   2.8401711  )
        41           O   tau(  41) = (   0.2502725   0.1908939   2.8438603  )
        42           H   tau(  42) = (   0.2775380   0.0677543   2.8760847  )

     number of k points=    10  Marzari-Vanderbilt smearing, width (Ry)=  0.0100
                       cart. coord. in units 2pi/alat
        k(    1) = (   0.0000000   0.0000000   0.0000000), wk =   0.1250000
        k(    2) = (   0.0000000   0.2886751   0.0000000), wk =   0.2500000
        k(    3) = (   0.0000000  -0.5773503   0.0000000), wk =   0.1250000
        k(    4) = (   0.2500000  -0.1443376   0.0000000), wk =   0.2500000
        k(    5) = (   0.2500000   0.1443376   0.0000000), wk =   0.2500000
        k(    6) = (   0.2500000  -0.7216878   0.0000000), wk =   0.2500000
        k(    7) = (   0.2500000  -0.4330127   0.0000000), wk =   0.2500000
        k(    8) = (  -0.5000000   0.2886751   0.0000000), wk =   0.1250000
        k(    9) = (  -0.5000000   0.5773503   0.0000000), wk =   0.2500000
        k(   10) = (  -0.5000000  -0.2886751   0.0000000), wk =   0.1250000

     Dense  grid:   254277 G-vectors     FFT dimensions: (  54,  54, 216)

     Estimated max dynamical RAM per process >     925.26 MB

     Estimated total dynamical RAM >       3.61 GB

     Initial potential from superposition of free atoms

     starting charge     697.0246, renormalised to     698.0000

     negative rho (up, down):  1.192E+00 0.000E+00


     %%%%%%%%%%%%%%%%%%%%%%%%%%%%%%%%%%%%%%%%%%%%%%%%%%%%%%%%%%%%%%%%%%%%%%%%
     %                                                                      %
     % You are using vdW-DF, which was implemented by the Thonhauser group. %
     % Please cite the following two papers that made this development      %
     % possible and the two reviews that describe the various versions:     %
     %                                                                      %
     %   T. Thonhauser et al., PRL 115, 136402 (2015).                      %
     %   T. Thonhauser et al., PRB 76, 125112 (2007).                       %
     %   K. Berland et al., Rep. Prog. Phys. 78, 066501 (2015).             %
     %   D.C. Langreth et al., J. Phys.: Condens. Matter 21, 084203 (2009). %
     %                                                                      %
     %                                                                      %
     % If you are calculating the stress with vdW-DF, please also cite:     %
     %                                                                      %
     %   R. Sabatini et al., J. Phys.: Condens. Matter 24, 424209 (2012).   %
     %                                                                      %
     %%%%%%%%%%%%%%%%%%%%%%%%%%%%%%%%%%%%%%%%%%%%%%%%%%%%%%%%%%%%%%%%%%%%%%%%


     Starting wfcs are random

     total cpu time spent up to now is       14.7 secs

     Self-consistent Calculation

     iteration #  1     ecut=    30.00 Ry     beta= 0.70
     Davidson diagonalization with overlap
